<?xml version="1.0" encoding="UTF-8"?>

<!-- generated on Tue Feb 27 10:04:36 2018 by SUMO gui Version 0.30.0
<?xml version="1.0" encoding="UTF-8"?>

<configuration xmlns:xsi="http://www.w3.org/2001/XMLSchema-instance" xsi:noNamespaceSchemaLocation="http://sumo.dlr.de/xsd/sumoConfiguration.xsd">

    <input>
        <net-file value="quickstart.net.xml"/>
        <route-files value="quickstart.rou.xml"/>
    </input>

    <output>
        <tripinfo-output value="tripinfo.xml"/>
    </output>

    <time>
        <begin value="0"/>
        <end value="3600"/>
    </time>

    <processing>
        <time-to-teleport value="-1"/>
    </processing>

    <traci_server>
        <remote-port value="53949"/>
    </traci_server>

</configuration>
-->

<tripinfos xmlns:xsi="http://www.w3.org/2001/XMLSchema-instance" xsi:noNamespaceSchemaLocation="http://sumo.dlr.de/xsd/tripinfo_file.xsd">
    <tripinfo id="straight_1" depart="5.00" departLane="A12_0" departPos="5.10" departSpeed="0.00" departDelay="4.00" arrival="296.00" arrivalLane="A79_0" arrivalPos="191.95" arrivalSpeed="15.83" duration="291.00" routeLength="1386.85" waitSteps="143" timeLoss="206.64" rerouteNo="0" devices="tripinfo_straight_1" vType="typeWE" speedFactor="1.00" vaporized=""/>
    <tripinfo id="straight_0" depart="0.00" departLane="A12_0" departPos="5.10" departSpeed="0.00" departDelay="0.00" arrival="296.00" arrivalLane="A79_1" arrivalPos="191.95" arrivalSpeed="15.11" duration="296.00" routeLength="1386.85" waitSteps="149" timeLoss="212.35" rerouteNo="0" devices="tripinfo_straight_0" vType="typeWE" speedFactor="1.00" vaporized=""/>
    <tripinfo id="straight_5" depart="26.00" departLane="A12_0" departPos="5.10" departSpeed="0.00" departDelay="21.00" arrival="307.00" arrivalLane="A79_1" arrivalPos="191.95" arrivalSpeed="16.36" duration="281.00" routeLength="1386.85" waitSteps="138" timeLoss="197.42" rerouteNo="0" devices="tripinfo_straight_5" vType="typeWE" speedFactor="1.00" vaporized=""/>
    <tripinfo id="straight_3" depart="15.00" departLane="A12_0" departPos="5.10" departSpeed="0.00" departDelay="12.00" arrival="307.00" arrivalLane="A79_2" arrivalPos="191.95" arrivalSpeed="16.60" duration="292.00" routeLength="1386.85" waitSteps="146" timeLoss="208.05" rerouteNo="0" devices="tripinfo_straight_3" vType="typeWE" speedFactor="1.00" vaporized=""/>
    <tripinfo id="straight_2" depart="10.00" departLane="A12_0" departPos="5.10" departSpeed="0.00" departDelay="8.00" arrival="308.00" arrivalLane="A79_0" arrivalPos="191.95" arrivalSpeed="16.45" duration="298.00" routeLength="1386.85" waitSteps="153" timeLoss="213.96" rerouteNo="0" devices="tripinfo_straight_2" vType="typeWE" speedFactor="1.00" vaporized=""/>
    <tripinfo id="straight_8" depart="41.00" departLane="A12_0" departPos="5.10" departSpeed="0.00" departDelay="33.00" arrival="309.00" arrivalLane="A79_2" arrivalPos="191.95" arrivalSpeed="16.35" duration="268.00" routeLength="1386.85" waitSteps="116" timeLoss="184.36" rerouteNo="0" devices="tripinfo_straight_8" vType="typeWE" speedFactor="1.00" vaporized=""/>
    <tripinfo id="straight_4" depart="20.00" departLane="A12_0" departPos="5.10" departSpeed="0.00" departDelay="16.00" arrival="310.00" arrivalLane="A79_0" arrivalPos="191.95" arrivalSpeed="16.36" duration="290.00" routeLength="1386.85" waitSteps="143" timeLoss="206.25" rerouteNo="0" devices="tripinfo_straight_4" vType="typeWE" speedFactor="1.00" vaporized=""/>
    <tripinfo id="straight_6" depart="31.00" departLane="A12_0" departPos="5.10" departSpeed="0.00" departDelay="25.00" arrival="310.00" arrivalLane="A79_1" arrivalPos="191.95" arrivalSpeed="16.44" duration="279.00" routeLength="1386.85" waitSteps="133" timeLoss="194.77" rerouteNo="0" devices="tripinfo_straight_6" vType="typeWE" speedFactor="1.00" vaporized=""/>
    <tripinfo id="straight_11" depart="57.00" departLane="A12_0" departPos="5.10" departSpeed="0.00" departDelay="46.00" arrival="311.00" arrivalLane="A79_1" arrivalPos="191.95" arrivalSpeed="16.45" duration="254.00" routeLength="1386.85" waitSteps="103" timeLoss="170.32" rerouteNo="0" devices="tripinfo_straight_11" vType="typeWE" speedFactor="1.00" vaporized=""/>
    <tripinfo id="straight_9" depart="47.00" departLane="A12_0" departPos="5.10" departSpeed="0.00" departDelay="38.00" arrival="311.00" arrivalLane="A79_2" arrivalPos="191.95" arrivalSpeed="16.49" duration="264.00" routeLength="1386.85" waitSteps="113" timeLoss="180.01" rerouteNo="0" devices="tripinfo_straight_9" vType="typeWE" speedFactor="1.00" vaporized=""/>
    <tripinfo id="straight_7" depart="36.00" departLane="A12_0" departPos="5.10" departSpeed="0.00" departDelay="29.00" arrival="313.00" arrivalLane="A79_0" arrivalPos="191.95" arrivalSpeed="16.50" duration="277.00" routeLength="1386.85" waitSteps="124" timeLoss="193.37" rerouteNo="0" devices="tripinfo_straight_7" vType="typeWE" speedFactor="1.00" vaporized=""/>
    <tripinfo id="straight_12" depart="62.00" departLane="A12_0" departPos="5.10" departSpeed="0.00" departDelay="50.00" arrival="385.00" arrivalLane="A79_1" arrivalPos="191.95" arrivalSpeed="16.14" duration="323.00" routeLength="1386.85" waitSteps="165" timeLoss="239.02" rerouteNo="0" devices="tripinfo_straight_12" vType="typeWE" speedFactor="1.00" vaporized=""/>
    <tripinfo id="straight_14" depart="72.00" departLane="A12_0" departPos="5.10" departSpeed="0.00" departDelay="58.00" arrival="386.00" arrivalLane="A79_2" arrivalPos="191.95" arrivalSpeed="15.64" duration="314.00" routeLength="1386.85" waitSteps="157" timeLoss="230.09" rerouteNo="0" devices="tripinfo_straight_14" vType="typeWE" speedFactor="1.00" vaporized=""/>
    <tripinfo id="straight_10" depart="52.00" departLane="A12_0" departPos="5.10" departSpeed="0.00" departDelay="42.00" arrival="386.00" arrivalLane="A79_0" arrivalPos="191.95" arrivalSpeed="15.95" duration="334.00" routeLength="1386.85" waitSteps="174" timeLoss="249.80" rerouteNo="0" devices="tripinfo_straight_10" vType="typeWE" speedFactor="1.00" vaporized=""/>
    <tripinfo id="straight_13" depart="67.00" departLane="A12_0" departPos="5.10" departSpeed="0.00" departDelay="54.00" arrival="387.00" arrivalLane="A79_0" arrivalPos="191.95" arrivalSpeed="16.00" duration="320.00" routeLength="1386.85" waitSteps="155" timeLoss="236.40" rerouteNo="0" devices="tripinfo_straight_13" vType="typeWE" speedFactor="1.00" vaporized=""/>
    <tripinfo id="straight_16" depart="82.00" departLane="A12_0" departPos="5.10" departSpeed="0.00" departDelay="66.00" arrival="387.00" arrivalLane="A79_1" arrivalPos="191.95" arrivalSpeed="16.40" duration="305.00" routeLength="1386.85" waitSteps="154" timeLoss="220.87" rerouteNo="0" devices="tripinfo_straight_16" vType="typeWE" speedFactor="1.00" vaporized=""/>
    <tripinfo id="straight_15" depart="77.00" departLane="A12_0" departPos="5.10" departSpeed="0.00" departDelay="62.00" arrival="388.00" arrivalLane="A79_2" arrivalPos="191.95" arrivalSpeed="16.24" duration="311.00" routeLength="1386.85" waitSteps="154" timeLoss="226.63" rerouteNo="0" devices="tripinfo_straight_15" vType="typeWE" speedFactor="1.00" vaporized=""/>
    <tripinfo id="straight_18" depart="92.00" departLane="A12_0" departPos="5.10" departSpeed="0.00" departDelay="74.00" arrival="389.00" arrivalLane="A79_1" arrivalPos="191.95" arrivalSpeed="16.61" duration="297.00" routeLength="1386.85" waitSteps="143" timeLoss="212.79" rerouteNo="0" devices="tripinfo_straight_18" vType="typeWE" speedFactor="1.00" vaporized=""/>
    <tripinfo id="straight_17" depart="87.00" departLane="A12_0" departPos="5.10" departSpeed="0.00" departDelay="70.00" arrival="390.00" arrivalLane="A79_0" arrivalPos="191.95" arrivalSpeed="16.47" duration="303.00" routeLength="1386.85" waitSteps="152" timeLoss="218.72" rerouteNo="0" devices="tripinfo_straight_17" vType="typeWE" speedFactor="1.00" vaporized=""/>
    <tripinfo id="straight_20" depart="102.00" departLane="A12_0" departPos="5.10" departSpeed="0.00" departDelay="82.00" arrival="397.00" arrivalLane="A79_1" arrivalPos="191.95" arrivalSpeed="16.50" duration="295.00" routeLength="1386.85" waitSteps="151" timeLoss="211.49" rerouteNo="0" devices="tripinfo_straight_20" vType="typeWE" speedFactor="1.00" vaporized=""/>
    <tripinfo id="straight_22" depart="112.00" departLane="A12_0" departPos="5.10" departSpeed="0.00" departDelay="90.00" arrival="398.00" arrivalLane="A79_2" arrivalPos="191.95" arrivalSpeed="16.44" duration="286.00" routeLength="1386.85" waitSteps="140" timeLoss="202.51" rerouteNo="0" devices="tripinfo_straight_22" vType="typeWE" speedFactor="1.00" vaporized=""/>
    <tripinfo id="straight_19" depart="97.00" departLane="A12_0" departPos="5.10" departSpeed="0.00" departDelay="78.00" arrival="398.00" arrivalLane="A79_0" arrivalPos="191.95" arrivalSpeed="16.45" duration="301.00" routeLength="1386.85" waitSteps="154" timeLoss="217.30" rerouteNo="0" devices="tripinfo_straight_19" vType="typeWE" speedFactor="1.00" vaporized=""/>
    <tripinfo id="straight_23" depart="118.00" departLane="A12_0" departPos="5.10" departSpeed="0.00" departDelay="95.00" arrival="399.00" arrivalLane="A79_1" arrivalPos="191.95" arrivalSpeed="16.55" duration="281.00" routeLength="1386.85" waitSteps="133" timeLoss="197.10" rerouteNo="0" devices="tripinfo_straight_23" vType="typeWE" speedFactor="1.00" vaporized=""/>
    <tripinfo id="straight_25" depart="128.00" departLane="A12_0" departPos="5.10" departSpeed="0.00" departDelay="103.00" arrival="400.00" arrivalLane="A79_2" arrivalPos="191.95" arrivalSpeed="16.37" duration="272.00" routeLength="1386.85" waitSteps="123" timeLoss="188.03" rerouteNo="0" devices="tripinfo_straight_25" vType="typeWE" speedFactor="1.00" vaporized=""/>
    <tripinfo id="straight_21" depart="107.00" departLane="A12_0" departPos="5.10" departSpeed="0.00" departDelay="86.00" arrival="400.00" arrivalLane="A79_0" arrivalPos="191.95" arrivalSpeed="16.29" duration="293.00" routeLength="1386.85" waitSteps="142" timeLoss="208.85" rerouteNo="0" devices="tripinfo_straight_21" vType="typeWE" speedFactor="1.00" vaporized=""/>
    <tripinfo id="straight_24" depart="123.00" departLane="A12_0" departPos="5.10" departSpeed="0.00" departDelay="99.00" arrival="401.00" arrivalLane="A79_0" arrivalPos="191.95" arrivalSpeed="16.48" duration="278.00" routeLength="1386.85" waitSteps="127" timeLoss="194.46" rerouteNo="0" devices="tripinfo_straight_24" vType="typeWE" speedFactor="1.00" vaporized=""/>
    <tripinfo id="straight_28" depart="144.00" departLane="A12_0" departPos="5.10" departSpeed="0.00" departDelay="116.00" arrival="403.00" arrivalLane="A79_1" arrivalPos="191.95" arrivalSpeed="16.53" duration="259.00" routeLength="1386.85" waitSteps="105" timeLoss="175.39" rerouteNo="0" devices="tripinfo_straight_28" vType="typeWE" speedFactor="1.00" vaporized=""/>
    <tripinfo id="straight_27" depart="139.00" departLane="A12_0" departPos="5.10" departSpeed="0.00" departDelay="112.00" arrival="475.00" arrivalLane="A79_1" arrivalPos="191.95" arrivalSpeed="15.73" duration="336.00" routeLength="1386.85" waitSteps="174" timeLoss="252.53" rerouteNo="0" devices="tripinfo_straight_27" vType="typeWE" speedFactor="1.00" vaporized=""/>
    <tripinfo id="straight_31" depart="159.00" departLane="A12_0" departPos="5.10" departSpeed="0.00" departDelay="128.00" arrival="475.00" arrivalLane="A79_2" arrivalPos="191.95" arrivalSpeed="15.03" duration="316.00" routeLength="1386.85" waitSteps="158" timeLoss="232.35" rerouteNo="0" devices="tripinfo_straight_31" vType="typeWE" speedFactor="1.00" vaporized=""/>
    <tripinfo id="straight_26" depart="133.00" departLane="A12_0" departPos="5.10" departSpeed="0.00" departDelay="107.00" arrival="476.00" arrivalLane="A79_0" arrivalPos="191.95" arrivalSpeed="16.09" duration="343.00" routeLength="1386.85" waitSteps="175" timeLoss="258.83" rerouteNo="0" devices="tripinfo_straight_26" vType="typeWE" speedFactor="1.00" vaporized=""/>
    <tripinfo id="straight_29" depart="149.00" departLane="A12_0" departPos="5.10" departSpeed="0.00" departDelay="120.00" arrival="477.00" arrivalLane="A79_1" arrivalPos="191.95" arrivalSpeed="15.93" duration="328.00" routeLength="1386.85" waitSteps="167" timeLoss="244.13" rerouteNo="0" devices="tripinfo_straight_29" vType="typeWE" speedFactor="1.00" vaporized=""/>
    <tripinfo id="straight_33" depart="169.00" departLane="A12_0" departPos="5.10" departSpeed="0.00" departDelay="136.00" arrival="477.00" arrivalLane="A79_2" arrivalPos="191.95" arrivalSpeed="16.16" duration="308.00" routeLength="1386.85" waitSteps="153" timeLoss="224.13" rerouteNo="0" devices="tripinfo_straight_33" vType="typeWE" speedFactor="1.00" vaporized=""/>
    <tripinfo id="straight_30" depart="154.00" departLane="A12_0" departPos="5.10" departSpeed="0.00" departDelay="124.00" arrival="478.00" arrivalLane="A79_0" arrivalPos="191.95" arrivalSpeed="16.29" duration="324.00" routeLength="1386.85" waitSteps="161" timeLoss="239.61" rerouteNo="0" devices="tripinfo_straight_30" vType="typeWE" speedFactor="1.00" vaporized=""/>
    <tripinfo id="straight_35" depart="179.00" departLane="A12_0" departPos="5.10" departSpeed="0.00" departDelay="144.00" arrival="479.00" arrivalLane="A79_0" arrivalPos="191.95" arrivalSpeed="16.13" duration="300.00" routeLength="1386.85" waitSteps="151" timeLoss="216.19" rerouteNo="0" devices="tripinfo_straight_35" vType="typeWE" speedFactor="1.00" vaporized=""/>
    <tripinfo id="straight_34" depart="174.00" departLane="A12_0" departPos="5.10" departSpeed="0.00" departDelay="140.00" arrival="480.00" arrivalLane="A79_2" arrivalPos="191.95" arrivalSpeed="15.97" duration="306.00" routeLength="1386.85" waitSteps="152" timeLoss="222.13" rerouteNo="0" devices="tripinfo_straight_34" vType="typeWE" speedFactor="1.00" vaporized=""/>
    <tripinfo id="straight_32" depart="164.00" departLane="A12_0" departPos="5.10" departSpeed="0.00" departDelay="132.00" arrival="481.00" arrivalLane="A79_1" arrivalPos="191.95" arrivalSpeed="15.56" duration="317.00" routeLength="1386.85" waitSteps="154" timeLoss="233.12" rerouteNo="0" devices="tripinfo_straight_32" vType="typeWE" speedFactor="1.00" vaporized=""/>
    <tripinfo id="straight_36" depart="184.00" departLane="A12_0" departPos="5.10" departSpeed="0.00" departDelay="148.00" arrival="487.00" arrivalLane="A79_0" arrivalPos="191.95" arrivalSpeed="16.36" duration="303.00" routeLength="1386.85" waitSteps="158" timeLoss="218.85" rerouteNo="0" devices="tripinfo_straight_36" vType="typeWE" speedFactor="1.00" vaporized=""/>
    <tripinfo id="straight_43" depart="219.00" departLane="A12_0" departPos="5.10" departSpeed="0.00" departDelay="176.00" arrival="487.00" arrivalLane="A79_1" arrivalPos="191.95" arrivalSpeed="16.29" duration="268.00" routeLength="1386.85" waitSteps="121" timeLoss="184.03" rerouteNo="0" devices="tripinfo_straight_43" vType="typeWE" speedFactor="1.00" vaporized=""/>
    <tripinfo id="straight_37" depart="189.00" departLane="A12_0" departPos="5.10" departSpeed="0.00" departDelay="152.00" arrival="489.00" arrivalLane="A79_0" arrivalPos="191.95" arrivalSpeed="16.41" duration="300.00" routeLength="1386.85" waitSteps="156" timeLoss="216.15" rerouteNo="0" devices="tripinfo_straight_37" vType="typeWE" speedFactor="1.00" vaporized=""/>
    <tripinfo id="straight_40" depart="204.00" departLane="A12_0" departPos="5.10" departSpeed="0.00" departDelay="164.00" arrival="489.00" arrivalLane="A79_1" arrivalPos="191.95" arrivalSpeed="16.58" duration="285.00" routeLength="1386.85" waitSteps="138" timeLoss="201.41" rerouteNo="0" devices="tripinfo_straight_40" vType="typeWE" speedFactor="1.00" vaporized=""/>
    <tripinfo id="straight_46" depart="234.00" departLane="A12_0" departPos="5.10" departSpeed="0.00" departDelay="188.00" arrival="489.00" arrivalLane="A79_2" arrivalPos="191.95" arrivalSpeed="16.55" duration="255.00" routeLength="1386.85" waitSteps="104" timeLoss="170.65" rerouteNo="0" devices="tripinfo_straight_46" vType="typeWE" speedFactor="1.00" vaporized=""/>
    <tripinfo id="straight_38" depart="194.00" departLane="A12_0" departPos="5.10" departSpeed="0.00" departDelay="156.00" arrival="491.00" arrivalLane="A79_0" arrivalPos="191.95" arrivalSpeed="16.66" duration="297.00" routeLength="1386.85" waitSteps="149" timeLoss="212.81" rerouteNo="0" devices="tripinfo_straight_38" vType="typeWE" speedFactor="1.00" vaporized=""/>
    <tripinfo id="straight_41" depart="209.00" departLane="A12_0" departPos="5.10" departSpeed="0.00" departDelay="168.00" arrival="491.00" arrivalLane="A79_1" arrivalPos="191.95" arrivalSpeed="16.56" duration="282.00" routeLength="1386.85" waitSteps="130" timeLoss="197.93" rerouteNo="0" devices="tripinfo_straight_41" vType="typeWE" speedFactor="1.00" vaporized=""/>
    <tripinfo id="straight_42" depart="214.00" departLane="A12_0" departPos="5.10" departSpeed="0.00" departDelay="172.00" arrival="491.00" arrivalLane="A79_2" arrivalPos="191.95" arrivalSpeed="16.28" duration="277.00" routeLength="1386.85" waitSteps="123" timeLoss="193.37" rerouteNo="0" devices="tripinfo_straight_42" vType="typeWE" speedFactor="1.00" vaporized=""/>
    <tripinfo id="straight_47" depart="239.00" departLane="A12_0" departPos="5.10" departSpeed="0.00" departDelay="192.00" arrival="564.00" arrivalLane="A79_0" arrivalPos="191.95" arrivalSpeed="16.00" duration="325.00" routeLength="1386.85" waitSteps="164" timeLoss="241.55" rerouteNo="0" devices="tripinfo_straight_47" vType="typeWE" speedFactor="1.00" vaporized=""/>
    <tripinfo id="straight_49" depart="249.00" departLane="A12_0" departPos="5.10" departSpeed="0.00" departDelay="200.00" arrival="566.00" arrivalLane="A79_2" arrivalPos="191.95" arrivalSpeed="15.49" duration="317.00" routeLength="1386.85" waitSteps="157" timeLoss="233.29" rerouteNo="0" devices="tripinfo_straight_49" vType="typeWE" speedFactor="1.00" vaporized=""/>
    <tripinfo id="straight_44" depart="224.00" departLane="A12_0" departPos="5.10" departSpeed="0.00" departDelay="180.00" arrival="566.00" arrivalLane="A79_0" arrivalPos="191.95" arrivalSpeed="14.84" duration="342.00" routeLength="1386.85" waitSteps="171" timeLoss="258.51" rerouteNo="0" devices="tripinfo_straight_44" vType="typeWE" speedFactor="1.00" vaporized=""/>
    <tripinfo id="straight_50" depart="254.00" departLane="A12_0" departPos="5.10" departSpeed="0.00" departDelay="204.00" arrival="567.00" arrivalLane="A79_1" arrivalPos="191.95" arrivalSpeed="16.19" duration="313.00" routeLength="1386.85" waitSteps="154" timeLoss="229.01" rerouteNo="0" devices="tripinfo_straight_50" vType="typeWE" speedFactor="1.00" vaporized=""/>
    <tripinfo id="straight_52" depart="264.00" departLane="A12_0" departPos="5.10" departSpeed="0.00" departDelay="212.00" arrival="568.00" arrivalLane="A79_2" arrivalPos="191.95" arrivalSpeed="16.17" duration="304.00" routeLength="1386.85" waitSteps="154" timeLoss="219.93" rerouteNo="0" devices="tripinfo_straight_52" vType="typeWE" speedFactor="1.00" vaporized=""/>
    <tripinfo id="straight_39" depart="199.00" departLane="A12_0" departPos="5.10" departSpeed="0.00" departDelay="160.00" arrival="568.00" arrivalLane="A79_0" arrivalPos="191.95" arrivalSpeed="15.43" duration="369.00" routeLength="1386.85" waitSteps="204" timeLoss="285.04" rerouteNo="0" devices="tripinfo_straight_39" vType="typeWE" speedFactor="1.00" vaporized=""/>
    <tripinfo id="straight_51" depart="259.00" departLane="A12_0" departPos="5.10" departSpeed="0.00" departDelay="208.00" arrival="569.00" arrivalLane="A79_1" arrivalPos="191.95" arrivalSpeed="16.38" duration="310.00" routeLength="1386.85" waitSteps="148" timeLoss="225.96" rerouteNo="0" devices="tripinfo_straight_51" vType="typeWE" speedFactor="1.00" vaporized=""/>
    <tripinfo id="straight_45" depart="229.00" departLane="A12_0" departPos="5.10" departSpeed="0.00" departDelay="184.00" arrival="570.00" arrivalLane="A79_0" arrivalPos="191.95" arrivalSpeed="16.27" duration="341.00" routeLength="1386.85" waitSteps="178" timeLoss="256.62" rerouteNo="0" devices="tripinfo_straight_45" vType="typeWE" speedFactor="1.00" vaporized=""/>
    <tripinfo id="straight_48" depart="244.00" departLane="A12_0" departPos="5.10" departSpeed="0.00" departDelay="196.00" arrival="571.00" arrivalLane="A79_0" arrivalPos="191.95" arrivalSpeed="16.30" duration="327.00" routeLength="1386.85" waitSteps="162" timeLoss="243.41" rerouteNo="0" devices="tripinfo_straight_48" vType="typeWE" speedFactor="1.00" vaporized=""/>
    <tripinfo id="straight_58" depart="294.00" departLane="A12_0" departPos="5.10" departSpeed="0.00" departDelay="236.00" arrival="578.00" arrivalLane="A79_2" arrivalPos="191.95" arrivalSpeed="16.55" duration="284.00" routeLength="1386.85" waitSteps="139" timeLoss="199.70" rerouteNo="0" devices="tripinfo_straight_58" vType="typeWE" speedFactor="1.00" vaporized=""/>
    <tripinfo id="straight_53" depart="269.00" departLane="A12_0" departPos="5.10" departSpeed="0.00" departDelay="216.00" arrival="578.00" arrivalLane="A79_1" arrivalPos="191.95" arrivalSpeed="16.28" duration="309.00" routeLength="1386.85" waitSteps="164" timeLoss="225.34" rerouteNo="0" devices="tripinfo_straight_53" vType="typeWE" speedFactor="1.00" vaporized=""/>
    <tripinfo id="straight_61" depart="310.00" departLane="A12_0" departPos="5.10" departSpeed="0.00" departDelay="249.00" arrival="579.00" arrivalLane="A79_2" arrivalPos="191.95" arrivalSpeed="16.32" duration="269.00" routeLength="1386.85" waitSteps="117" timeLoss="185.24" rerouteNo="0" devices="tripinfo_straight_61" vType="typeWE" speedFactor="1.00" vaporized=""/>
    <tripinfo id="straight_54" depart="274.00" departLane="A12_0" departPos="5.10" departSpeed="0.00" departDelay="220.00" arrival="579.00" arrivalLane="A79_0" arrivalPos="191.95" arrivalSpeed="16.39" duration="305.00" routeLength="1386.85" waitSteps="154" timeLoss="221.37" rerouteNo="0" devices="tripinfo_straight_54" vType="typeWE" speedFactor="1.00" vaporized=""/>
    <tripinfo id="straight_56" depart="284.00" departLane="A12_0" departPos="5.10" departSpeed="0.00" departDelay="228.00" arrival="580.00" arrivalLane="A79_1" arrivalPos="191.95" arrivalSpeed="16.61" duration="296.00" routeLength="1386.85" waitSteps="149" timeLoss="211.89" rerouteNo="0" devices="tripinfo_straight_56" vType="typeWE" speedFactor="1.00" vaporized=""/>
    <tripinfo id="straight_64" depart="325.00" departLane="A12_0" departPos="5.10" departSpeed="0.00" departDelay="261.00" arrival="581.00" arrivalLane="A79_2" arrivalPos="191.95" arrivalSpeed="16.53" duration="256.00" routeLength="1386.85" waitSteps="100" timeLoss="171.99" rerouteNo="0" devices="tripinfo_straight_64" vType="typeWE" speedFactor="1.00" vaporized=""/>
    <tripinfo id="straight_55" depart="279.00" departLane="A12_0" departPos="5.10" departSpeed="0.00" departDelay="224.00" arrival="581.00" arrivalLane="A79_0" arrivalPos="191.95" arrivalSpeed="16.36" duration="302.00" routeLength="1386.85" waitSteps="156" timeLoss="217.90" rerouteNo="0" devices="tripinfo_straight_55" vType="typeWE" speedFactor="1.00" vaporized=""/>
    <tripinfo id="straight_59" depart="299.00" departLane="A12_0" departPos="5.10" departSpeed="0.00" departDelay="240.00" arrival="581.00" arrivalLane="A79_1" arrivalPos="191.95" arrivalSpeed="16.42" duration="282.00" routeLength="1386.85" waitSteps="131" timeLoss="198.43" rerouteNo="0" devices="tripinfo_straight_59" vType="typeWE" speedFactor="1.00" vaporized=""/>
    <tripinfo id="straight_62" depart="315.00" departLane="A12_0" departPos="5.10" departSpeed="0.00" departDelay="253.00" arrival="655.00" arrivalLane="A79_0" arrivalPos="191.95" arrivalSpeed="16.04" duration="340.00" routeLength="1386.85" waitSteps="174" timeLoss="255.78" rerouteNo="0" devices="tripinfo_straight_62" vType="typeWE" speedFactor="1.00" vaporized=""/>
    <tripinfo id="straight_67" depart="340.00" departLane="A12_0" departPos="5.10" departSpeed="0.00" departDelay="273.00" arrival="656.00" arrivalLane="A79_2" arrivalPos="191.95" arrivalSpeed="15.80" duration="316.00" routeLength="1386.85" waitSteps="157" timeLoss="231.95" rerouteNo="0" devices="tripinfo_straight_67" vType="typeWE" speedFactor="1.00" vaporized=""/>
    <tripinfo id="straight_57" depart="289.00" departLane="A12_0" departPos="5.10" departSpeed="0.00" departDelay="232.00" arrival="656.00" arrivalLane="A79_0" arrivalPos="191.95" arrivalSpeed="15.31" duration="367.00" routeLength="1386.85" waitSteps="200" timeLoss="283.40" rerouteNo="0" devices="tripinfo_straight_57" vType="typeWE" speedFactor="1.00" vaporized=""/>
    <tripinfo id="straight_70" depart="356.00" departLane="A12_0" departPos="5.10" departSpeed="0.00" departDelay="286.00" arrival="657.00" arrivalLane="A79_2" arrivalPos="191.95" arrivalSpeed="15.82" duration="301.00" routeLength="1386.85" waitSteps="153" timeLoss="217.49" rerouteNo="0" devices="tripinfo_straight_70" vType="typeWE" speedFactor="1.00" vaporized=""/>
    <tripinfo id="straight_65" depart="330.00" departLane="A12_0" departPos="5.10" departSpeed="0.00" departDelay="265.00" arrival="657.00" arrivalLane="A79_0" arrivalPos="191.95" arrivalSpeed="16.31" duration="327.00" routeLength="1386.85" waitSteps="165" timeLoss="242.72" rerouteNo="0" devices="tripinfo_straight_65" vType="typeWE" speedFactor="1.00" vaporized=""/>
    <tripinfo id="straight_60" depart="304.00" departLane="A12_0" departPos="5.10" departSpeed="0.00" departDelay="244.00" arrival="658.00" arrivalLane="A79_0" arrivalPos="191.95" arrivalSpeed="15.64" duration="354.00" routeLength="1386.85" waitSteps="192" timeLoss="270.01" rerouteNo="0" devices="tripinfo_straight_60" vType="typeWE" speedFactor="1.00" vaporized=""/>
    <tripinfo id="straight_68" depart="345.00" departLane="A12_0" departPos="5.10" departSpeed="0.00" departDelay="277.00" arrival="658.00" arrivalLane="A79_1" arrivalPos="191.95" arrivalSpeed="16.43" duration="313.00" routeLength="1386.85" waitSteps="152" timeLoss="229.24" rerouteNo="0" devices="tripinfo_straight_68" vType="typeWE" speedFactor="1.00" vaporized=""/>
    <tripinfo id="straight_71" depart="361.00" departLane="A12_0" departPos="5.10" departSpeed="0.00" departDelay="290.00" arrival="659.00" arrivalLane="A79_2" arrivalPos="191.95" arrivalSpeed="16.17" duration="298.00" routeLength="1386.85" waitSteps="143" timeLoss="214.05" rerouteNo="0" devices="tripinfo_straight_71" vType="typeWE" speedFactor="1.00" vaporized=""/>
    <tripinfo id="straight_63" depart="320.00" departLane="A12_0" departPos="5.10" departSpeed="0.00" departDelay="257.00" arrival="660.00" arrivalLane="A79_0" arrivalPos="191.95" arrivalSpeed="15.86" duration="340.00" routeLength="1386.85" waitSteps="178" timeLoss="256.22" rerouteNo="0" devices="tripinfo_straight_63" vType="typeWE" speedFactor="1.00" vaporized=""/>
    <tripinfo id="straight_66" depart="335.00" departLane="A12_0" departPos="5.10" departSpeed="0.00" departDelay="269.00" arrival="667.00" arrivalLane="A79_0" arrivalPos="191.95" arrivalSpeed="16.66" duration="332.00" routeLength="1386.85" waitSteps="171" timeLoss="248.46" rerouteNo="0" devices="tripinfo_straight_66" vType="typeWE" speedFactor="1.00" vaporized=""/>
    <tripinfo id="straight_69" depart="350.00" departLane="A12_0" departPos="5.10" departSpeed="0.00" departDelay="281.00" arrival="667.00" arrivalLane="A79_1" arrivalPos="191.95" arrivalSpeed="16.53" duration="317.00" routeLength="1386.85" waitSteps="161" timeLoss="232.81" rerouteNo="0" devices="tripinfo_straight_69" vType="typeWE" speedFactor="1.00" vaporized=""/>
    <tripinfo id="straight_73" depart="372.00" departLane="A12_0" departPos="5.10" departSpeed="0.00" departDelay="299.00" arrival="668.00" arrivalLane="A79_2" arrivalPos="191.95" arrivalSpeed="16.58" duration="296.00" routeLength="1386.85" waitSteps="153" timeLoss="212.01" rerouteNo="0" devices="tripinfo_straight_73" vType="typeWE" speedFactor="1.00" vaporized=""/>
    <tripinfo id="straight_75" depart="382.00" departLane="A12_0" departPos="5.10" departSpeed="0.00" departDelay="307.00" arrival="668.00" arrivalLane="A79_1" arrivalPos="191.95" arrivalSpeed="16.65" duration="286.00" routeLength="1386.85" waitSteps="142" timeLoss="202.60" rerouteNo="0" devices="tripinfo_straight_75" vType="typeWE" speedFactor="1.00" vaporized=""/>
    <tripinfo id="straight_78" depart="397.00" departLane="A12_0" departPos="5.10" departSpeed="0.00" departDelay="319.00" arrival="669.00" arrivalLane="A79_2" arrivalPos="191.95" arrivalSpeed="16.37" duration="272.00" routeLength="1386.85" waitSteps="128" timeLoss="188.56" rerouteNo="0" devices="tripinfo_straight_78" vType="typeWE" speedFactor="1.00" vaporized=""/>
    <tripinfo id="straight_72" depart="366.00" departLane="A12_0" departPos="5.10" departSpeed="0.00" departDelay="294.00" arrival="669.00" arrivalLane="A79_0" arrivalPos="191.95" arrivalSpeed="16.35" duration="303.00" routeLength="1386.85" waitSteps="156" timeLoss="219.04" rerouteNo="0" devices="tripinfo_straight_72" vType="typeWE" speedFactor="1.00" vaporized=""/>
    <tripinfo id="straight_81" depart="412.00" departLane="A12_0" departPos="5.10" departSpeed="0.00" departDelay="331.00" arrival="671.00" arrivalLane="A79_2" arrivalPos="191.95" arrivalSpeed="16.60" duration="259.00" routeLength="1386.85" waitSteps="108" timeLoss="175.12" rerouteNo="0" devices="tripinfo_straight_81" vType="typeWE" speedFactor="1.00" vaporized=""/>
    <tripinfo id="straight_76" depart="387.00" departLane="A12_0" departPos="5.10" departSpeed="0.00" departDelay="311.00" arrival="671.00" arrivalLane="A79_1" arrivalPos="191.95" arrivalSpeed="16.35" duration="284.00" routeLength="1386.85" waitSteps="137" timeLoss="199.90" rerouteNo="0" devices="tripinfo_straight_76" vType="typeWE" speedFactor="1.00" vaporized=""/>
    <tripinfo id="straight_74" depart="377.00" departLane="A12_0" departPos="5.10" departSpeed="0.00" departDelay="303.00" arrival="673.00" arrivalLane="A79_0" arrivalPos="191.95" arrivalSpeed="16.40" duration="296.00" routeLength="1386.85" waitSteps="146" timeLoss="212.28" rerouteNo="0" devices="tripinfo_straight_74" vType="typeWE" speedFactor="1.00" vaporized=""/>